[
  {
    "atomicNumber": 57,
    "symbol": "La",
    "name": "Lanthanum",
    "atomicMass": "138.90547(7)",
    "cpkHexColor": "70D4FF",
    "electronicConfiguration": "[Xe] 5d1 6s2",
    "electronegativity": 1.1,
    "atomicRadius": 169,
    "ionRadius": "103.2 (+3)",
    "vanDelWaalsRadius": "",
    "ionizationEnergy": 538,
    "electronAffinity": -48,
    "oxidationStates": "2, 3",
    "standardState": "solid",
    "bondingType": "metallic",
    "meltingPoint": 1193,
    "boilingPoint": 3737,
    "density": 6.146,
    "groupBlock": "lanthanoid",
    "yearDiscovered": 1839
  },
  {
    "atomicNumber": 58,
    "symbol": "Ce",
    "name": "Cerium",
    "atomicMass": "140.116(1)",
    "cpkHexColor": "FFFFC7",
    "electronicConfiguration": "[Xe] 4f1 5d1 6s2",
    "electronegativity": 1.12,
    "atomicRadius": "",
    "ionRadius": "102 (+3)",
    "vanDelWaalsRadius": "",
    "ionizationEnergy": 534,
    "electronAffinity": -50,
    "oxidationStates": "2, 3, 4",
    "standardState": "solid",
    "bondingType": "metallic",
    "meltingPoint": 1071,
    "boilingPoint": 3633,
    "density": 6.689,
    "groupBlock": "lanthanoid",
    "yearDiscovered": 1803
  },
  {
    "atomicNumber": 59,
    "symbol": "Pr",
    "name": "Praseodymium",
    "atomicMass": "140.90765(2)",
    "cpkHexColor": "D9FFC7",
    "electronicConfiguration": "[Xe] 4f3 6s2",
    "electronegativity": 1.13,
    "atomicRadius": "",
    "ionRadius": "99 (+3)",
    "vanDelWaalsRadius": "",
    "ionizationEnergy": 527,
    "electronAffinity": -50,
    "oxidationStates": "2, 3, 4",
    "standardState": "solid",
    "bondingType": "metallic",
    "meltingPoint": 1204,
    "boilingPoint": 3563,
    "density": 6.64,
    "groupBlock": "lanthanoid",
    "yearDiscovered": 1885
  },
  {
    "atomicNumber": 60,
    "symbol": "Nd",
    "name": "Neodymium",
    "atomicMass": "144.242(3)",
    "cpkHexColor": "C7FFC7",
    "electronicConfiguration": "[Xe] 4f4 6s2",
    "electronegativity": 1.14,
    "atomicRadius": "",
    "ionRadius": "129 (+2)",
    "vanDelWaalsRadius": "",
    "ionizationEnergy": 533,
    "electronAffinity": -50,
    "oxidationStates": "2, 3",
    "standardState": "solid",
    "bondingType": "metallic",
    "meltingPoint": 1294,
    "boilingPoint": 3373,
    "density": 7.01,
    "groupBlock": "lanthanoid",
    "yearDiscovered": 1885
  },
  {
    "atomicNumber": 61,
    "symbol": "Pm",
    "name": "Promethium",
    "atomicMass": [145],
    "cpkHexColor": "A3FFC7",
    "electronicConfiguration": "[Xe] 4f5 6s2",
    "electronegativity": 1.13,
    "atomicRadius": "",
    "ionRadius": "97 (+3)",
    "vanDelWaalsRadius": "",
    "ionizationEnergy": 540,
    "electronAffinity": -50,
    "oxidationStates": 3,
    "standardState": "solid",
    "bondingType": "metallic",
    "meltingPoint": 1373,
    "boilingPoint": 3273,
    "density": 7.264,
    "groupBlock": "lanthanoid",
    "yearDiscovered": 1947
  },
  {
    "atomicNumber": 62,
    "symbol": "Sm",
    "name": "Samarium",
    "atomicMass": "150.36(2)",
    "cpkHexColor": "8FFFC7",
    "electronicConfiguration": "[Xe] 4f6 6s2",
    "electronegativity": 1.17,
    "atomicRadius": "",
    "ionRadius": "122 (+2)",
    "vanDelWaalsRadius": "",
    "ionizationEnergy": 545,
    "electronAffinity": -50,
    "oxidationStates": "2, 3",
    "standardState": "solid",
    "bondingType": "metallic",
    "meltingPoint": 1345,
    "boilingPoint": 2076,
    "density": 7.353,
    "groupBlock": "lanthanoid",
    "yearDiscovered": 1853
  },
  {
    "atomicNumber": 63,
    "symbol": "Eu",
    "name": "Europium",
    "atomicMass": "151.964(1)",
    "cpkHexColor": "61FFC7",
    "electronicConfiguration": "[Xe] 4f7 6s2",
    "electronegativity": 1.2,
    "atomicRadius": "",
    "ionRadius": "117 (+2)",
    "vanDelWaalsRadius": "",
    "ionizationEnergy": 547,
    "electronAffinity": -50,
    "oxidationStates": "2, 3",
    "standardState": "solid",
    "bondingType": "metallic",
    "meltingPoint": 1095,
    "boilingPoint": 1800,
    "density": 5.244,
    "groupBlock": "lanthanoid",
    "yearDiscovered": 1901
  },
  {
    "atomicNumber": 64,
    "symbol": "Gd",
    "name": "Gadolinium",
    "atomicMass": "157.25(3)",
    "cpkHexColor": "45FFC7",
    "electronicConfiguration": "[Xe] 4f7 5d1 6s2",
    "electronegativity": 1.2,
    "atomicRadius": "",
    "ionRadius": "93.8 (+3)",
    "vanDelWaalsRadius": "",
    "ionizationEnergy": 593,
    "electronAffinity": -50,
    "oxidationStates": "1, 2, 3",
    "standardState": "solid",
    "bondingType": "metallic",
    "meltingPoint": 1586,
    "boilingPoint": 3523,
    "density": 7.901,
    "groupBlock": "lanthanoid",
    "yearDiscovered": 1880
  },
  {
    "atomicNumber": 65,
    "symbol": "Tb",
    "name": "Terbium",
    "atomicMass": "158.92535(2)",
    "cpkHexColor": "30FFC7",
    "electronicConfiguration": "[Xe] 4f9 6s2",
    "electronegativity": 1.2,
    "atomicRadius": "",
    "ionRadius": "92.3 (+3)",
    "vanDelWaalsRadius": "",
    "ionizationEnergy": 566,
    "electronAffinity": -50,
    "oxidationStates": "1, 3, 4",
    "standardState": "solid",
    "bondingType": "metallic",
    "meltingPoint": 1629,
    "boilingPoint": 3503,
    "density": 8.219,
    "groupBlock": "lanthanoid",
    "yearDiscovered": 1843
  },
  {
    "atomicNumber": 66,
    "symbol": "Dy",
    "name": "Dysprosium",
    "atomicMass": "162.500(1)",
    "cpkHexColor": "1FFFC7",
    "electronicConfiguration": "[Xe] 4f10 6s2",
    "electronegativity": 1.22,
    "atomicRadius": "",
    "ionRadius": "107 (+2)",
    "vanDelWaalsRadius": "",
    "ionizationEnergy": 573,
    "electronAffinity": -50,
    "oxidationStates": "2, 3",
    "standardState": "solid",
    "bondingType": "metallic",
    "meltingPoint": 1685,
    "boilingPoint": 2840,
    "density": 8.551,
    "groupBlock": "lanthanoid",
    "yearDiscovered": 1886
  },
  {
    "atomicNumber": 67,
    "symbol": "Ho",
    "name": "Holmium",
    "atomicMass": "164.93032(2)",
    "cpkHexColor": "00FF9C",
    "electronicConfiguration": "[Xe] 4f11 6s2",
    "electronegativity": 1.23,
    "atomicRadius": "",
    "ionRadius": "90.1 (+3)",
    "vanDelWaalsRadius": "",
    "ionizationEnergy": 581,
    "electronAffinity": -50,
    "oxidationStates": 3,
    "standardState": "solid",
    "bondingType": "metallic",
    "meltingPoint": 1747,
    "boilingPoint": 2973,
    "density": 8.795,
    "groupBlock": "lanthanoid",
    "yearDiscovered": 1878
  },
  {
    "atomicNumber": 68,
    "symbol": "Er",
    "name": "Erbium",
    "atomicMass": "167.259(3)",
    "cpkHexColor": 0,
    "electronicConfiguration": "[Xe] 4f12 6s2",
    "electronegativity": 1.24,
    "atomicRadius": "",
    "ionRadius": "89 (+3)",
    "vanDelWaalsRadius": "",
    "ionizationEnergy": 589,
    "electronAffinity": -50,
    "oxidationStates": 3,
    "standardState": "solid",
    "bondingType": "metallic",
    "meltingPoint": 1770,
    "boilingPoint": 3141,
    "density": 9.066,
    "groupBlock": "lanthanoid",
    "yearDiscovered": 1842
  },
  {
    "atomicNumber": 69,
    "symbol": "Tm",
    "name": "Thulium",
    "atomicMass": "168.93421(2)",
    "cpkHexColor": "00D452",
    "electronicConfiguration": "[Xe] 4f13 6s2",
    "electronegativity": 1.25,
    "atomicRadius": "",
    "ionRadius": "103 (+2)",
    "vanDelWaalsRadius": "",
    "ionizationEnergy": 597,
    "electronAffinity": -50,
    "oxidationStates": "2, 3",
    "standardState": "solid",
    "bondingType": "metallic",
    "meltingPoint": 1818,
    "boilingPoint": 2223,
    "density": 9.321,
    "groupBlock": "lanthanoid",
    "yearDiscovered": 1879
  },
  {
    "atomicNumber": 70,
    "symbol": "Yb",
    "name": "Ytterbium",
    "atomicMass": "173.054(5)",
    "cpkHexColor": "00BF38",
    "electronicConfiguration": "[Xe] 4f14 6s2",
    "electronegativity": 1.1,
    "atomicRadius": "",
    "ionRadius": "102 (+2)",
    "vanDelWaalsRadius": "",
    "ionizationEnergy": 603,
    "electronAffinity": -50,
    "oxidationStates": "2, 3",
    "standardState": "solid",
    "bondingType": "metallic",
    "meltingPoint": 1092,
    "boilingPoint": 1469,
    "density": 6.57,
    "groupBlock": "lanthanoid",
    "yearDiscovered": 1878
  },
  {
    "atomicNumber": 71,
    "symbol": "Lu",
    "name": "Lutetium",
    "atomicMass": "174.9668(1)",
    "cpkHexColor": "00AB24",
    "electronicConfiguration": "[Xe] 4f14 5d1 6s2",
    "electronegativity": 1.27,
    "atomicRadius": 160,
    "ionRadius": "86.1 (+3)",
    "vanDelWaalsRadius": "",
    "ionizationEnergy": 524,
    "electronAffinity": -50,
    "oxidationStates": 3,
    "standardState": "solid",
    "bondingType": "metallic",
    "meltingPoint": 1936,
    "boilingPoint": 3675,
    "density": 9.841,
    "groupBlock": "lanthanoid",
    "yearDiscovered": 1907
  }
]
