[
  {
    "atomicNumber": 89,
    "symbol": "Ac",
    "name": "Actinium",
    "atomicMass": [227],
    "cpkHexColor": "70ABFA",
    "electronicConfiguration": "[Rn] 6d1 7s2",
    "electronegativity": 1.1,
    "atomicRadius": "",
    "ionRadius": "112 (+3)",
    "vanDelWaalsRadius": "",
    "ionizationEnergy": 499,
    "electronAffinity": "",
    "oxidationStates": 3,
    "standardState": "solid",
    "bondingType": "metallic",
    "meltingPoint": 1323,
    "boilingPoint": 3473,
    "density": 10.07,
    "groupBlock": "actinoid",
    "yearDiscovered": 1899
  },
  {
    "atomicNumber": 90,
    "symbol": "Th",
    "name": "Thorium",
    "atomicMass": "232.03806(2)",
    "cpkHexColor": "00BAFF",
    "electronicConfiguration": "[Rn] 6d2 7s2",
    "electronegativity": 1.3,
    "atomicRadius": "",
    "ionRadius": "94 (+4)",
    "vanDelWaalsRadius": "",
    "ionizationEnergy": 587,
    "electronAffinity": "",
    "oxidationStates": "2, 3, 4",
    "standardState": "solid",
    "bondingType": "metallic",
    "meltingPoint": 2023,
    "boilingPoint": 5093,
    "density": 11.724,
    "groupBlock": "actinoid",
    "yearDiscovered": 1828
  },
  {
    "atomicNumber": 91,
    "symbol": "Pa",
    "name": "Protactinium",
    "atomicMass": "231.03588(2)",
    "cpkHexColor": "00A1FF",
    "electronicConfiguration": "[Rn] 5f2 6d1 7s2",
    "electronegativity": 1.5,
    "atomicRadius": "",
    "ionRadius": "104 (+3)",
    "vanDelWaalsRadius": "",
    "ionizationEnergy": 568,
    "electronAffinity": "",
    "oxidationStates": "3, 4, 5",
    "standardState": "solid",
    "bondingType": "metallic",
    "meltingPoint": 1845,
    "boilingPoint": 4273,
    "density": 15.37,
    "groupBlock": "actinoid",
    "yearDiscovered": 1913
  },
  {
    "atomicNumber": 92,
    "symbol": "U",
    "name": "Uranium",
    "atomicMass": "238.02891(3)",
    "cpkHexColor": "008FFF",
    "electronicConfiguration": "[Rn] 5f3 6d1 7s2",
    "electronegativity": 1.38,
    "atomicRadius": "",
    "ionRadius": "102.5 (+3)",
    "vanDelWaalsRadius": 186,
    "ionizationEnergy": 598,
    "electronAffinity": "",
    "oxidationStates": "3, 4, 5, 6",
    "standardState": "solid",
    "bondingType": "metallic",
    "meltingPoint": 1408,
    "boilingPoint": 4200,
    "density": 19.05,
    "groupBlock": "actinoid",
    "yearDiscovered": 1789
  },
  {
    "atomicNumber": 93,
    "symbol": "Np",
    "name": "Neptunium",
    "atomicMass": [237],
    "cpkHexColor": "0080FF",
    "electronicConfiguration": "[Rn] 5f4 6d1 7s2",
    "electronegativity": 1.36,
    "atomicRadius": "",
    "ionRadius": "110 (+2)",
    "vanDelWaalsRadius": "",
    "ionizationEnergy": 605,
    "electronAffinity": "",
    "oxidationStates": "3, 4, 5, 6, 7",
    "standardState": "solid",
    "bondingType": "metallic",
    "meltingPoint": 917,
    "boilingPoint": 4273,
    "density": 20.45,
    "groupBlock": "actinoid",
    "yearDiscovered": 1940
  },
  {
    "atomicNumber": 94,
    "symbol": "Pu",
    "name": "Plutonium",
    "atomicMass": [244],
    "cpkHexColor": "006BFF",
    "electronicConfiguration": "[Rn] 5f6 7s2",
    "electronegativity": 1.28,
    "atomicRadius": "",
    "ionRadius": "100 (+3)",
    "vanDelWaalsRadius": "",
    "ionizationEnergy": 585,
    "electronAffinity": "",
    "oxidationStates": "3, 4, 5, 6, 7",
    "standardState": "solid",
    "bondingType": "metallic",
    "meltingPoint": 913,
    "boilingPoint": 3503,
    "density": 19.816,
    "groupBlock": "actinoid",
    "yearDiscovered": 1940
  },
  {
    "atomicNumber": 95,
    "symbol": "Am",
    "name": "Americium",
    "atomicMass": [243],
    "cpkHexColor": "545CF2",
    "electronicConfiguration": "[Rn] 5f7 7s2",
    "electronegativity": 1.3,
    "atomicRadius": "",
    "ionRadius": "126 (+2)",
    "vanDelWaalsRadius": "",
    "ionizationEnergy": 578,
    "electronAffinity": "",
    "oxidationStates": "2, 3, 4, 5, 6",
    "standardState": "solid",
    "bondingType": "metallic",
    "meltingPoint": 1449,
    "boilingPoint": 2284,
    "density": "",
    "groupBlock": "actinoid",
    "yearDiscovered": 1944
  },
  {
    "atomicNumber": 96,
    "symbol": "Cm",
    "name": "Curium",
    "atomicMass": [247],
    "cpkHexColor": "785CE3",
    "electronicConfiguration": "[Rn] 5f7 6d1 7s2",
    "electronegativity": 1.3,
    "atomicRadius": "",
    "ionRadius": "97 (+3)",
    "vanDelWaalsRadius": "",
    "ionizationEnergy": 581,
    "electronAffinity": "",
    "oxidationStates": "3, 4",
    "standardState": "solid",
    "bondingType": "metallic",
    "meltingPoint": 1618,
    "boilingPoint": 3383,
    "density": 13.51,
    "groupBlock": "actinoid",
    "yearDiscovered": 1944
  },
  {
    "atomicNumber": 97,
    "symbol": "Bk",
    "name": "Berkelium",
    "atomicMass": [247],
    "cpkHexColor": "8A4FE3",
    "electronicConfiguration": "[Rn] 5f9 7s2",
    "electronegativity": 1.3,
    "atomicRadius": "",
    "ionRadius": "96 (+3)",
    "vanDelWaalsRadius": "",
    "ionizationEnergy": 601,
    "electronAffinity": "",
    "oxidationStates": "3, 4",
    "standardState": "solid",
    "bondingType": "metallic",
    "meltingPoint": 1323,
    "boilingPoint": "",
    "density": 14.78,
    "groupBlock": "actinoid",
    "yearDiscovered": 1949
  },
  {
    "atomicNumber": 98,
    "symbol": "Cf",
    "name": "Californium",
    "atomicMass": [251],
    "cpkHexColor": "A136D4",
    "electronicConfiguration": "[Rn] 5f10 7s2",
    "electronegativity": 1.3,
    "atomicRadius": "",
    "ionRadius": "95 (+3)",
    "vanDelWaalsRadius": "",
    "ionizationEnergy": 608,
    "electronAffinity": "",
    "oxidationStates": "2, 3, 4",
    "standardState": "solid",
    "bondingType": "metallic",
    "meltingPoint": 1173,
    "boilingPoint": "",
    "density": 15.1,
    "groupBlock": "actinoid",
    "yearDiscovered": 1950
  },
  {
    "atomicNumber": 99,
    "symbol": "Es",
    "name": "Einsteinium",
    "atomicMass": [252],
    "cpkHexColor": "B31FD4",
    "electronicConfiguration": "[Rn] 5f11 7s2",
    "electronegativity": 1.3,
    "atomicRadius": "",
    "ionRadius": "",
    "vanDelWaalsRadius": "",
    "ionizationEnergy": 619,
    "electronAffinity": "",
    "oxidationStates": "2, 3",
    "standardState": "solid",
    "bondingType": "",
    "meltingPoint": 1133,
    "boilingPoint": "",
    "density": "",
    "groupBlock": "actinoid",
    "yearDiscovered": 1952
  },
  {
    "atomicNumber": 100,
    "symbol": "Fm",
    "name": "Fermium",
    "atomicMass": [257],
    "cpkHexColor": "B31FBA",
    "electronicConfiguration": "[Rn] 5f12 7s2",
    "electronegativity": 1.3,
    "atomicRadius": "",
    "ionRadius": "",
    "vanDelWaalsRadius": "",
    "ionizationEnergy": 627,
    "electronAffinity": "",
    "oxidationStates": "2, 3",
    "standardState": "",
    "bondingType": "",
    "meltingPoint": 1800,
    "boilingPoint": "",
    "density": "",
    "groupBlock": "actinoid",
    "yearDiscovered": 1952
  },
  {
    "atomicNumber": 101,
    "symbol": "Md",
    "name": "Mendelevium",
    "atomicMass": [258],
    "cpkHexColor": "B30DA6",
    "electronicConfiguration": "[Rn] 5f13 7s2",
    "electronegativity": 1.3,
    "atomicRadius": "",
    "ionRadius": "",
    "vanDelWaalsRadius": "",
    "ionizationEnergy": 635,
    "electronAffinity": "",
    "oxidationStates": "2, 3",
    "standardState": "",
    "bondingType": "",
    "meltingPoint": 1100,
    "boilingPoint": "",
    "density": "",
    "groupBlock": "actinoid",
    "yearDiscovered": 1955
  },
  {
    "atomicNumber": 102,
    "symbol": "No",
    "name": "Nobelium",
    "atomicMass": [259],
    "cpkHexColor": "BD0D87",
    "electronicConfiguration": "[Rn] 5f14 7s2",
    "electronegativity": 1.3,
    "atomicRadius": "",
    "ionRadius": "",
    "vanDelWaalsRadius": "",
    "ionizationEnergy": 642,
    "electronAffinity": "",
    "oxidationStates": "2, 3",
    "standardState": "",
    "bondingType": "",
    "meltingPoint": 1100,
    "boilingPoint": "",
    "density": "",
    "groupBlock": "actinoid",
    "yearDiscovered": 1957
  },
  {
    "atomicNumber": 103,
    "symbol": "Lr",
    "name": "Lawrencium",
    "atomicMass": [262],
    "cpkHexColor": "C70066",
    "electronicConfiguration": "[Rn] 5f14 7s2 7p1",
    "electronegativity": 1.3,
    "atomicRadius": "",
    "ionRadius": "",
    "vanDelWaalsRadius": "",
    "ionizationEnergy": "",
    "electronAffinity": "",
    "oxidationStates": 3,
    "standardState": "",
    "bondingType": "",
    "meltingPoint": 1900,
    "boilingPoint": "",
    "density": "",
    "groupBlock": "transition metal",
    "yearDiscovered": 1961
  }
]
